version 2
run prova1-5-20150105-23:47:51-7528
attr configname prova1
attr datetime 20150105-23:47:51
attr experiment prova1
attr inifile omnetpp.ini
attr iterationvars ""
attr iterationvars2 $repetition=5
attr measurement ""
attr network Project
attr processid 7528
attr repetition 5
attr replication #5
attr resultdir results
attr runnumber 5
attr seedset 5

vector 0  Project.server  WaitInQueue:vector  ETV
attr ""  ""
attr source  WaitInQueue
0	2	10	0
