version 2
run prova1-4-20150105-23:47:50-1484
attr configname prova1
attr datetime 20150105-23:47:50
attr experiment prova1
attr inifile omnetpp.ini
attr iterationvars ""
attr iterationvars2 $repetition=4
attr measurement ""
attr network Project
attr processid 1484
attr repetition 4
attr replication #4
attr resultdir results
attr runnumber 4
attr seedset 4

vector 0  Project.server  WaitInQueue:vector  ETV
attr ""  ""
attr source  WaitInQueue
0	2	10	0
