version 2
run prova1-2-20150105-23:47:48-6348
attr configname prova1
attr datetime 20150105-23:47:48
attr experiment prova1
attr inifile omnetpp.ini
attr iterationvars ""
attr iterationvars2 $repetition=2
attr measurement ""
attr network Project
attr processid 6348
attr repetition 2
attr replication #2
attr resultdir results
attr runnumber 2
attr seedset 2

vector 0  Project.server  WaitInQueue:vector  ETV
attr ""  ""
attr source  WaitInQueue
0	2	10	0
